309
Lattice="1.0 0.0 0.0 0.0 1.0 0.0 0.0 0.0 1.0" Properties=species:S:1:pos:R:3 energy=50.2318925441404 pbc="F F F"
Ag       0.00000029       0.00000026      -0.00000011 
Ag       0.00000028       1.41313347      -2.28649762 
Au      -2.28649731       0.00000027      -1.41313333 
Ag       0.00000027       2.85363440      -4.61727709 
Ag      -4.61727680       0.00000028      -2.85363425 
Au      -2.34017731       1.44630956      -3.78648694 
Au       0.00000027       4.31116917      -6.97561792 
Au      -6.97561768       0.00000030      -4.31116901 
Au      -4.70414944       1.46050897      -5.27047710 
Au      -2.36315241       2.90732463      -6.16465841 
Au      -3.85583388       3.85583440      -3.85583420 
Au       0.00000029       5.75465745      -9.31123105 
Au      -9.31123082       0.00000034      -5.75465730 
Au      -7.07047692       1.45322109      -6.72115565 
Ag      -4.72234295       2.91856887      -7.64091182 
Au      -2.35136020       4.36979533      -8.52369791 
Ag      -6.24533006       3.86687000      -5.33683915 
Ag      -3.86686948       5.33683938      -6.24533034 
Au      -1.41313293       2.28649782      -0.00000009 
Au      -2.28649732       0.00000026       1.41313305 
Ag      -2.85363388       4.61727729      -0.00000007 
Ag      -4.61727681       0.00000025       2.85363397 
Ag      -3.78648660       2.34017784       1.44630917 
Au      -4.31116870       6.97561811      -0.00000006 
Au      -6.97561765       0.00000022       4.31116878 
Au      -6.16465807       2.36315292       2.90732429 
Au      -5.27047681       4.70414991       1.46050859 
Au      -3.85583386       3.85583437       3.85583404 
Au      -5.75465701       9.31123123      -0.00000005 
Au      -9.31123077       0.00000020       5.75465710 
Au      -8.52369750       2.35136073       4.36979515 
Ag      -7.64091151       4.72234342       2.91856856 
Au      -6.72115546       7.07047731       1.45322059 
Ag      -6.24532995       3.86686991       5.33683912 
Ag      -5.33683894       6.24533046       3.86686965 
Ag      -1.41313298      -2.28649730      -0.00000017 
Ag      -2.85363395      -4.61727677      -0.00000022 
Au      -3.78648664      -2.34017730      -1.44630946 
Au      -4.31116878      -6.97561762      -0.00000025 
Au      -5.27047688      -4.70414939      -1.46050887 
Au      -6.16465814      -2.36315239      -2.90732454 
Au      -6.23887049      -2.38303628      -0.00000019 
Au      -5.75465710      -9.31123075      -0.00000027 
Au      -6.72115554      -7.07047680      -1.45322087 
Ag      -7.64091162      -4.72234289      -2.91856877 
Au      -8.52369760      -2.35136020      -4.36979534 
Ag      -7.72669591      -4.76831718      -0.00000018 
Ag      -8.63518698      -2.38985666      -1.46996963 
Ag      -3.78648660       2.34017785      -1.44630937 
Au      -6.16465812       2.36315294      -2.90732442 
Au      -5.27047680       4.70414993      -1.46050874 
Au      -6.23887044       2.38303681      -0.00000008 
Au      -8.52369765       2.35136076      -4.36979511 
Ag      -7.64091157       4.72234344      -2.91856860 
Au      -6.72115540       7.07047736      -1.45322081 
Au      -8.63518697       2.38985714      -1.46996946 
Au      -7.72669584       4.76831769      -0.00000007 
Ag      -4.68035492       0.00000027      -0.00000015 
Au      -7.06730212       0.00000027       1.44681557 
Au      -7.06730214       0.00000025      -1.44681582 
Au      -9.42183737       0.00000031       2.91657434 
Ag      -9.44468617       0.00000026      -0.00000010 
Au      -9.42183742       0.00000021      -2.91657454 
Au      -8.63518691       2.38985719       1.46996942 
Au       0.00000026      -1.41313295      -2.28649765 
Ag       0.00000024      -2.85363391      -4.61727713 
Au       0.00000025       0.00000026      -4.68035521 
Au       0.00000021      -4.31116872      -6.97561795 
Au       0.00000019      -1.44681547      -7.06730238 
Au       0.00000025       1.44681595      -7.06730238 
Au      -2.38303633       0.00000026      -6.23887075 
Au       0.00000021      -5.75465701      -9.31123108 
Au       0.00000010      -2.91657424      -9.42183763 
Ag       0.00000018       0.00000022      -9.44468640 
Au       0.00000032       2.91657468      -9.42183764 
Ag      -2.38985677      -1.46996925      -8.63518720 
Ag      -2.38985667       1.46996968      -8.63518723 
Au       1.41313349       2.28649778      -0.00000004 
Ag       2.85363444       4.61727727       0.00000002 
Ag       0.00000029       4.68035540      -0.00000003 
Au       4.31116923       6.97561810       0.00000008 
Au      -1.44681545       7.06730257      -0.00000001 
Au       1.44681599       7.06730257       0.00000001 
Au       0.00000029       6.23887090       2.38303654 
Au       5.75465752       9.31123121       0.00000011 
Au      -2.91657422       9.42183780       0.00000004 
Ag       0.00000026       9.44468658       0.00000002 
Au       2.91657474       9.42183781      -0.00000000 
Ag      -1.46996921       8.63518735       2.38985693 
Ag       1.46996973       8.63518738       2.38985693 
Au      -1.44630906      -3.78648661      -2.34017774 
Au      -2.90732421      -6.16465808      -2.36315288 
Au      -1.46050845      -5.27047684      -4.70414980 
Au      -3.85583393      -3.85583387      -3.85583428 
Au      -4.36979507      -8.52369751      -2.35136076 
Ag      -2.91856841      -7.64091155      -4.72234337 
Au      -1.45322043      -6.72115550      -7.07047720 
Ag      -5.33683903      -6.24532996      -3.86686988 
Ag      -3.86686951      -5.33683897      -6.24533035 
Au      -1.44630901       3.78648713      -2.34017764 
Au      -2.90732412       6.16465860      -2.36315273 
Au      -1.46050842       5.27047729      -4.70414973 
Au       0.00000026       6.23887094      -2.38303657 
Au      -4.36979488       8.52369807      -2.35136053 
Ag      -2.91856836       7.64091201      -4.72234325 
Au      -1.45322051       6.72115584      -7.07047719 
Ag      -1.46996920       8.63518742      -2.38985691 
Ag       0.00000020       7.72669632      -4.76831748 
Au       1.44630956       3.78648711      -2.34017758 
Au       1.46050892       5.27047730      -4.70414966 
Au       2.90732467       6.16465857      -2.36315263 
Au       1.45322090       6.72115591      -7.07047708 
Ag       2.91856884       7.64091201      -4.72234313 
Au       4.36979549       8.52369800      -2.35136042 
Ag       1.46996973       8.63518740      -2.38985691 
Au       2.28649782       0.00000024      -1.41313324 
Ag       4.61727732       0.00000024      -2.85363416 
Au       2.34017785       1.44630954      -3.78648688 
Au       6.97561814       0.00000024      -4.31116894 
Au       2.36315294       2.90732463      -6.16465834 
Au       4.70414993       1.46050890      -5.27047706 
Au       3.85583441       3.85583438      -3.85583410 
Au       9.31123125       0.00000025      -5.75465725 
Au       2.35136079       4.36979544      -8.52369778 
Ag       4.72234344       2.91856882      -7.64091177 
Au       7.07047732       1.45322088      -6.72115570 
Ag       3.86686996       5.33683943      -6.24533020 
Ag       6.24533049       3.86686994      -5.33683917 
Ag       2.34017784      -1.44630904      -3.78648690 
Au       2.36315289      -2.90732413      -6.16465838 
Au       4.70414993      -1.46050845      -5.27047705 
Au       2.38303679       0.00000024      -6.23887070 
Au       2.35136068      -4.36979487      -8.52369788 
Ag       4.72234340      -2.91856835      -7.64091179 
Au       7.07047736      -1.45322053      -6.72115563 
Ag       2.38985707      -1.46996921      -8.63518720 
Ag       4.76831768       0.00000019      -7.72669608 
Ag      -2.34017734      -1.44630901      -3.78648696 
Au      -4.70414945      -1.46050837      -5.27047714 
Au      -2.36315246      -2.90732416      -6.16465841 
Au      -7.07047689      -1.45322032      -6.72115576 
Ag      -4.72234299      -2.91856834      -7.64091183 
Au      -2.35136032      -4.36979502      -8.52369782 
Ag      -4.76831726       0.00000033      -7.72669613 
Au      -3.78648665      -2.34017731       1.44630906 
Au      -6.16465815      -2.36315241       2.90732414 
Au      -5.27047686      -4.70414941       1.46050843 
Au      -8.52369764      -2.35136024       4.36979489 
Ag      -7.64091160      -4.72234293       2.91856834 
Au      -6.72115546      -7.07047686       1.45322050 
Ag      -8.63518699      -2.38985662       1.46996924 
Au       1.41313344      -2.28649732      -0.00000012 
Ag       2.85363435      -4.61727683      -0.00000011 
Au       0.00000020      -4.68035491      -0.00000017 
Au       4.31116912      -6.97561770      -0.00000009 
Au      -1.44681554      -7.06730209      -0.00000023 
Au       1.44681588      -7.06730211      -0.00000013 
Au       0.00000020      -6.23887045      -2.38303670 
Au       5.75465739      -9.31123085      -0.00000008 
Au      -2.91657432      -9.42183734      -0.00000033 
Ag       0.00000014      -9.44468613      -0.00000018 
Au       2.91657460      -9.42183739      -0.00000002 
Ag      -1.46996930      -8.63518691      -2.38985714 
Ag       1.46996962      -8.63518696      -2.38985700 
Ag       1.44630952      -3.78648662      -2.34017769 
Au       1.46050891      -5.27047682      -4.70414976 
Au       2.90732457      -6.16465813      -2.36315276 
Au       3.85583438      -3.85583391      -3.85583419 
Au       1.45322099      -6.72115540      -7.07047721 
Ag       2.91856880      -7.64091157      -4.72234327 
Au       4.36979528      -8.52369766      -2.35136054 
Au       3.86686995      -5.33683892      -6.24533033 
Au       5.33683935      -6.24533008      -3.86686979 
Ag       3.78648711      -2.34017735      -1.44630935 
Au       5.27047726      -4.70414948      -1.46050876 
Au       6.16465860      -2.36315244      -2.90732440 
Au       6.72115580      -7.07047695      -1.45322084 
Ag       7.64091199      -4.72234298      -2.91856865 
Au       8.52369809      -2.35136023      -4.36979513 
Au       6.24533051      -3.86686950      -5.33683917 
Ag      -5.33683891       6.24533052      -3.86686977 
Au       0.00000022      -1.41313298       2.28649740 
Ag       0.00000015      -2.85363395       4.61727685 
Au      -1.44630910      -3.78648662       2.34017736 
Au       0.00000005      -4.31116877       6.97561768 
Au      -1.46050860      -5.27047682       4.70414944 
Au      -2.90732422      -6.16465810       2.36315241 
Au      -3.85583397      -3.85583388       3.85583387 
Au      -0.00000005      -5.75465710       9.31123080 
Au      -1.45322080      -6.72115540       7.07047689 
Ag      -2.91856855      -7.64091154       4.72234292 
Au      -4.36979497      -8.52369760       2.35136020 
Ag      -3.86686965      -5.33683888       6.24533001 
Ag      -5.33683900      -6.24533002       3.86686945 
Ag       2.38985717       1.46996969      -8.63518717 
Ag       0.00000025      -7.72669587      -4.76831758 
Ag       3.78648716       2.34017781      -1.44630927 
Au       6.16465861       2.36315291      -2.90732436 
Au       5.27047736       4.70414989      -1.46050859 
Au       8.52369802       2.35136076      -4.36979521 
Ag       7.64091205       4.72234342      -2.91856853 
Au       6.72115598       7.07047730      -1.45322054 
Ag       5.33683946       6.24533048      -3.86686962 
Au       2.28649781       0.00000021       1.41313312 
Ag       4.61727729       0.00000012       2.85363411 
Au       4.68035544       0.00000020      -0.00000002 
Au       6.97561811      -0.00000001       4.31116895 
Au       7.06730262       0.00000023      -1.44681571 
Au       7.06730260       0.00000010       1.44681572 
Au       6.23887099       2.38303674       0.00000005 
Au       9.31123120      -0.00000012       5.75465729 
Au       9.42183785       0.00000031      -2.91657446 
Ag       9.44468663       0.00000016       0.00000002 
Au       9.42183783      -0.00000007       2.91657451 
Ag       8.63518744       2.38985716      -1.46996943 
Ag       8.63518746       2.38985698       1.46996952 
Ag      -2.34017737      -1.44630904       3.78648665 
Au      -2.36315253      -2.90732414       6.16465812 
Au      -4.70414948      -1.46050846       5.27047683 
Au      -2.38303632       0.00000021       6.23887048 
Au      -2.35136043      -4.36979488       8.52369763 
Ag      -4.72234306      -2.91856837       7.64091156 
Au      -7.07047693      -1.45322058       6.72115543 
Ag      -2.38985671      -1.46996923       8.63518697 
Ag      -4.76831722       0.00000015       7.72669588 
Ag       0.00000028       1.41313344       2.28649745 
Ag       0.00000030       2.85363434       4.61727695 
Au      -1.44630900       3.78648709       2.34017750 
Au       0.00000033       4.31116909       6.97561782 
Au      -1.46050834       5.27047726       4.70414960 
Au      -2.90732413       6.16465855       2.36315262 
Au       0.00000033       5.75465732       9.31123098 
Au      -1.45322029       6.72115584       7.07047704 
Ag      -2.91856829       7.64091196       4.72234314 
Au      -4.36979498       8.52369797       2.35136046 
Ag       0.00000037       7.72669625       4.76831747 
Ag       7.72669637       4.76831764       0.00000013 
Ag      -6.24533005      -3.86686941      -5.33683932 
Ag       3.78648715       2.34017776       1.44630928 
Au       5.27047734       4.70414984       1.46050874 
Au       6.16465862       2.36315275       2.90732441 
Au       3.85583445       3.85583427       3.85583415 
Au       6.72115589       7.07047729       1.45322087 
Ag       7.64091204       4.72234325       2.91856869 
Au       8.52369809       2.35136042       4.36979518 
Ag       5.33683944       6.24533040       3.86686981 
Ag       6.24533056       3.86686973       5.33683921 
Au       1.44630959       3.78648708       2.34017755 
Au       1.46050902       5.27047722       4.70414967 
Au       2.90732468       6.16465855       2.36315271 
Au       1.45322112       6.72115574       7.07047715 
Ag       2.91856893       7.64091194       4.72234326 
Au       4.36979540       8.52369804       2.35136056 
Ag       3.86687005       5.33683922       6.24533032 
Ag      -6.24533011      -3.86686949       5.33683888 
Au      -2.34017732       1.44630952       3.78648670 
Au      -4.70414940       1.46050888       5.27047689 
Au      -2.36315238       2.90732460       6.16465819 
Au      -7.07047681       1.45322082       6.72115556 
Ag      -4.72234289       2.91856877       7.64091163 
Au      -2.35136020       4.36979537       8.52369766 
Ag      -2.38985668       1.46996964       8.63518698 
Ag      -3.86686939       5.33683940       6.24533016 
Au       0.00000013      -6.23887047       2.38303635 
Ag       1.46996956      -8.63518696       2.38985678 
Ag      -1.46996934      -8.63518695       2.38985664 
Au       0.00000023       0.00000020       4.68035500 
Au       0.00000019      -1.44681555       7.06730215 
Au       0.00000025       1.44681586       7.06730220 
Au       2.38303677       0.00000010       6.23887057 
Au       0.00000016      -2.91657432       9.42183740 
Ag       0.00000022       0.00000011       9.44468621 
Au       0.00000022       2.91657455       9.42183749 
Ag       2.38985709      -1.46996944       8.63518701 
Ag       2.38985713       1.46996947       8.63518709 
Au       2.34017785       1.44630945       3.78648679 
Au       2.36315296       2.90732448       6.16465830 
Au       4.70414993       1.46050873       5.27047703 
Au       2.35136078       4.36979516       8.52369783 
Ag       4.72234346       2.91856857       7.64091179 
Au       7.07047735       1.45322067       6.72115566 
Ag       4.76831765      -0.00000002       7.72669602 
Ag       1.44630946      -3.78648666       2.34017742 
Au       1.46050872      -5.27047690       4.70414948 
Au       2.90732453      -6.16465816       2.36315254 
Au       1.45322059      -6.72115557       7.07047687 
Ag       2.91856861      -7.64091165       4.72234302 
Au       4.36979534      -8.52369762       2.35136041 
Ag      -0.00000004      -7.72669589       4.76831724 
Au       6.23887093      -2.38303638      -0.00000005 
Ag       8.63518743      -2.38985668      -1.46996947 
Ag       7.72669629      -4.76831730      -0.00000012 
Ag       3.78648709      -2.34017740       1.44630919 
Au       5.27047726      -4.70414951       1.46050856 
Au       6.16465854      -2.36315260       2.90732433 
Au       6.72115587      -7.07047695       1.45322055 
Ag       7.64091197      -4.72234313       2.91856850 
Au       8.52369796      -2.35136056       4.36979520 
Ag       8.63518739      -2.38985685       1.46996944 
Ag       2.34017778      -1.44630913       3.78648674 
Au       2.36315279      -2.90732430       6.16465817 
Au       4.70414984      -1.46050863       5.27047698 
Au       3.85583427      -3.85583402       3.85583400 
Au       2.35136053      -4.36979518       8.52369759 
Ag       4.72234328      -2.91856866       7.64091164 
Au       7.07047724      -1.45322076       6.72115565 
Au       3.86686973      -5.33683916       6.24533007 
Au       6.24533036      -3.86686972       5.33683908 
Au       5.33683931      -6.24533015       3.86686957 
